+ 1.00819 /NodeList/0/DeviceList/0/$ns3::CsmaNetDevice/TxQueue/Enqueue ns3::EthernetHeader ( length/type=0x208, source=00:00:00:00:00:01, destination=00:00:00:00:00:02) ns3::LlcSnapHeader (type 0x2) Payload (size=512) ns3::EthernetTrailer (fcs=0)
- 1.00819 /NodeList/0/DeviceList/0/$ns3::CsmaNetDevice/TxQueue/Dequeue ns3::EthernetHeader ( length/type=0x208, source=00:00:00:00:00:01, destination=00:00:00:00:00:02) ns3::LlcSnapHeader (type 0x2) Payload (size=512) ns3::EthernetTrailer (fcs=0)
+ 1.00819 /NodeList/3/DeviceList/0/$ns3::CsmaNetDevice/TxQueue/Enqueue ns3::EthernetHeader ( length/type=0x208, source=00:00:00:00:00:04, destination=00:00:00:00:00:01) ns3::LlcSnapHeader (type 0x3) Payload (size=512) ns3::EthernetTrailer (fcs=0)
- 1.00819 /NodeList/3/DeviceList/0/$ns3::CsmaNetDevice/TxQueue/Dequeue ns3::EthernetHeader ( length/type=0x208, source=00:00:00:00:00:04, destination=00:00:00:00:00:01) ns3::LlcSnapHeader (type 0x3) Payload (size=512) ns3::EthernetTrailer (fcs=0)
r 1.01105 /NodeList/1/DeviceList/0/$ns3::CsmaNetDevice/MacRx ns3::EthernetHeader ( length/type=0x208, source=00:00:00:00:00:01, destination=00:00:00:00:00:02) ns3::LlcSnapHeader (type 0x2) Payload (size=512) ns3::EthernetTrailer (fcs=0)
r 1.01402 /NodeList/0/DeviceList/0/$ns3::CsmaNetDevice/MacRx ns3::EthernetHeader ( length/type=0x208, source=00:00:00:00:00:04, destination=00:00:00:00:00:01) ns3::LlcSnapHeader (type 0x3) Payload (size=512) ns3::EthernetTrailer (fcs=0)
+ 1.01638 /NodeList/0/DeviceList/0/$ns3::CsmaNetDevice/TxQueue/Enqueue ns3::EthernetHeader ( length/type=0x208, source=00:00:00:00:00:01, destination=00:00:00:00:00:02) ns3::LlcSnapHeader (type 0x2) Payload (size=512) ns3::EthernetTrailer (fcs=0)
- 1.01638 /NodeList/0/DeviceList/0/$ns3::CsmaNetDevice/TxQueue/Dequeue ns3::EthernetHeader ( length/type=0x208, source=00:00:00:00:00:01, destination=00:00:00:00:00:02) ns3::LlcSnapHeader (type 0x2) Payload (size=512) ns3::EthernetTrailer (fcs=0)
+ 1.01638 /NodeList/3/DeviceList/0/$ns3::CsmaNetDevice/TxQueue/Enqueue ns3::EthernetHeader ( length/type=0x208, source=00:00:00:00:00:04, destination=00:00:00:00:00:01) ns3::LlcSnapHeader (type 0x3) Payload (size=512) ns3::EthernetTrailer (fcs=0)
- 1.01638 /NodeList/3/DeviceList/0/$ns3::CsmaNetDevice/TxQueue/Dequeue ns3::EthernetHeader ( length/type=0x208, source=00:00:00:00:00:04, destination=00:00:00:00:00:01) ns3::LlcSnapHeader (type 0x3) Payload (size=512) ns3::EthernetTrailer (fcs=0)
r 1.01924 /NodeList/1/DeviceList/0/$ns3::CsmaNetDevice/MacRx ns3::EthernetHeader ( length/type=0x208, source=00:00:00:00:00:01, destination=00:00:00:00:00:02) ns3::LlcSnapHeader (type 0x2) Payload (size=512) ns3::EthernetTrailer (fcs=0)
r 1.02213 /NodeList/0/DeviceList/0/$ns3::CsmaNetDevice/MacRx ns3::EthernetHeader ( length/type=0x208, source=00:00:00:00:00:04, destination=00:00:00:00:00:01) ns3::LlcSnapHeader (type 0x3) Payload (size=512) ns3::EthernetTrailer (fcs=0)
+ 1.02458 /NodeList/0/DeviceList/0/$ns3::CsmaNetDevice/TxQueue/Enqueue ns3::EthernetHeader ( length/type=0x208, source=00:00:00:00:00:01, destination=00:00:00:00:00:02) ns3::LlcSnapHeader (type 0x2) Payload (size=512) ns3::EthernetTrailer (fcs=0)
- 1.02458 /NodeList/0/DeviceList/0/$ns3::CsmaNetDevice/TxQueue/Dequeue ns3::EthernetHeader ( length/type=0x208, source=00:00:00:00:00:01, destination=00:00:00:00:00:02) ns3::LlcSnapHeader (type 0x2) Payload (size=512) ns3::EthernetTrailer (fcs=0)
+ 1.02458 /NodeList/3/DeviceList/0/$ns3::CsmaNetDevice/TxQueue/Enqueue ns3::EthernetHeader ( length/type=0x208, source=00:00:00:00:00:04, destination=00:00:00:00:00:01) ns3::LlcSnapHeader (type 0x3) Payload (size=512) ns3::EthernetTrailer (fcs=0)
- 1.02458 /NodeList/3/DeviceList/0/$ns3::CsmaNetDevice/TxQueue/Dequeue ns3::EthernetHeader ( length/type=0x208, source=00:00:00:00:00:04, destination=00:00:00:00:00:01) ns3::LlcSnapHeader (type 0x3) Payload (size=512) ns3::EthernetTrailer (fcs=0)
r 1.02744 /NodeList/1/DeviceList/0/$ns3::CsmaNetDevice/MacRx ns3::EthernetHeader ( length/type=0x208, source=00:00:00:00:00:01, destination=00:00:00:00:00:02) ns3::LlcSnapHeader (type 0x2) Payload (size=512) ns3::EthernetTrailer (fcs=0)
r 1.03032 /NodeList/0/DeviceList/0/$ns3::CsmaNetDevice/MacRx ns3::EthernetHeader ( length/type=0x208, source=00:00:00:00:00:04, destination=00:00:00:00:00:01) ns3::LlcSnapHeader (type 0x3) Payload (size=512) ns3::EthernetTrailer (fcs=0)
+ 1.03277 /NodeList/0/DeviceList/0/$ns3::CsmaNetDevice/TxQueue/Enqueue ns3::EthernetHeader ( length/type=0x208, source=00:00:00:00:00:01, destination=00:00:00:00:00:02) ns3::LlcSnapHeader (type 0x2) Payload (size=512) ns3::EthernetTrailer (fcs=0)
- 1.03277 /NodeList/0/DeviceList/0/$ns3::CsmaNetDevice/TxQueue/Dequeue ns3::EthernetHeader ( length/type=0x208, source=00:00:00:00:00:01, destination=00:00:00:00:00:02) ns3::LlcSnapHeader (type 0x2) Payload (size=512) ns3::EthernetTrailer (fcs=0)
+ 1.03277 /NodeList/3/DeviceList/0/$ns3::CsmaNetDevice/TxQueue/Enqueue ns3::EthernetHeader ( length/type=0x208, source=00:00:00:00:00:04, destination=00:00:00:00:00:01) ns3::LlcSnapHeader (type 0x3) Payload (size=512) ns3::EthernetTrailer (fcs=0)
- 1.03277 /NodeList/3/DeviceList/0/$ns3::CsmaNetDevice/TxQueue/Dequeue ns3::EthernetHeader ( length/type=0x208, source=00:00:00:00:00:04, destination=00:00:00:00:00:01) ns3::LlcSnapHeader (type 0x3) Payload (size=512) ns3::EthernetTrailer (fcs=0)
r 1.03563 /NodeList/1/DeviceList/0/$ns3::CsmaNetDevice/MacRx ns3::EthernetHeader ( length/type=0x208, source=00:00:00:00:00:01, destination=00:00:00:00:00:02) ns3::LlcSnapHeader (type 0x2) Payload (size=512) ns3::EthernetTrailer (fcs=0)
r 1.03911 /NodeList/0/DeviceList/0/$ns3::CsmaNetDevice/MacRx ns3::EthernetHeader ( length/type=0x208, source=00:00:00:00:00:04, destination=00:00:00:00:00:01) ns3::LlcSnapHeader (type 0x3) Payload (size=512) ns3::EthernetTrailer (fcs=0)
+ 1.04096 /NodeList/0/DeviceList/0/$ns3::CsmaNetDevice/TxQueue/Enqueue ns3::EthernetHeader ( length/type=0x208, source=00:00:00:00:00:01, destination=00:00:00:00:00:02) ns3::LlcSnapHeader (type 0x2) Payload (size=512) ns3::EthernetTrailer (fcs=0)
- 1.04096 /NodeList/0/DeviceList/0/$ns3::CsmaNetDevice/TxQueue/Dequeue ns3::EthernetHeader ( length/type=0x208, source=00:00:00:00:00:01, destination=00:00:00:00:00:02) ns3::LlcSnapHeader (type 0x2) Payload (size=512) ns3::EthernetTrailer (fcs=0)
+ 1.04096 /NodeList/3/DeviceList/0/$ns3::CsmaNetDevice/TxQueue/Enqueue ns3::EthernetHeader ( length/type=0x208, source=00:00:00:00:00:04, destination=00:00:00:00:00:01) ns3::LlcSnapHeader (type 0x3) Payload (size=512) ns3::EthernetTrailer (fcs=0)
- 1.04096 /NodeList/3/DeviceList/0/$ns3::CsmaNetDevice/TxQueue/Dequeue ns3::EthernetHeader ( length/type=0x208, source=00:00:00:00:00:04, destination=00:00:00:00:00:01) ns3::LlcSnapHeader (type 0x3) Payload (size=512) ns3::EthernetTrailer (fcs=0)
r 1.04382 /NodeList/1/DeviceList/0/$ns3::CsmaNetDevice/MacRx ns3::EthernetHeader ( length/type=0x208, source=00:00:00:00:00:01, destination=00:00:00:00:00:02) ns3::LlcSnapHeader (type 0x2) Payload (size=512) ns3::EthernetTrailer (fcs=0)
r 1.0468 /NodeList/0/DeviceList/0/$ns3::CsmaNetDevice/MacRx ns3::EthernetHeader ( length/type=0x208, source=00:00:00:00:00:04, destination=00:00:00:00:00:01) ns3::LlcSnapHeader (type 0x3) Payload (size=512) ns3::EthernetTrailer (fcs=0)
+ 1.04915 /NodeList/0/DeviceList/0/$ns3::CsmaNetDevice/TxQueue/Enqueue ns3::EthernetHeader ( length/type=0x208, source=00:00:00:00:00:01, destination=00:00:00:00:00:02) ns3::LlcSnapHeader (type 0x2) Payload (size=512) ns3::EthernetTrailer (fcs=0)
- 1.04915 /NodeList/0/DeviceList/0/$ns3::CsmaNetDevice/TxQueue/Dequeue ns3::EthernetHeader ( length/type=0x208, source=00:00:00:00:00:01, destination=00:00:00:00:00:02) ns3::LlcSnapHeader (type 0x2) Payload (size=512) ns3::EthernetTrailer (fcs=0)
+ 1.04915 /NodeList/3/DeviceList/0/$ns3::CsmaNetDevice/TxQueue/Enqueue ns3::EthernetHeader ( length/type=0x208, source=00:00:00:00:00:04, destination=00:00:00:00:00:01) ns3::LlcSnapHeader (type 0x3) Payload (size=512) ns3::EthernetTrailer (fcs=0)
- 1.04915 /NodeList/3/DeviceList/0/$ns3::CsmaNetDevice/TxQueue/Dequeue ns3::EthernetHeader ( length/type=0x208, source=00:00:00:00:00:04, destination=00:00:00:00:00:01) ns3::LlcSnapHeader (type 0x3) Payload (size=512) ns3::EthernetTrailer (fcs=0)
r 1.05201 /NodeList/1/DeviceList/0/$ns3::CsmaNetDevice/MacRx ns3::EthernetHeader ( length/type=0x208, source=00:00:00:00:00:01, destination=00:00:00:00:00:02) ns3::LlcSnapHeader (type 0x2) Payload (size=512) ns3::EthernetTrailer (fcs=0)
r 1.0556 /NodeList/0/DeviceList/0/$ns3::CsmaNetDevice/MacRx ns3::EthernetHeader ( length/type=0x208, source=00:00:00:00:00:04, destination=00:00:00:00:00:01) ns3::LlcSnapHeader (type 0x3) Payload (size=512) ns3::EthernetTrailer (fcs=0)
+ 1.05734 /NodeList/0/DeviceList/0/$ns3::CsmaNetDevice/TxQueue/Enqueue ns3::EthernetHeader ( length/type=0x208, source=00:00:00:00:00:01, destination=00:00:00:00:00:02) ns3::LlcSnapHeader (type 0x2) Payload (size=512) ns3::EthernetTrailer (fcs=0)
- 1.05734 /NodeList/0/DeviceList/0/$ns3::CsmaNetDevice/TxQueue/Dequeue ns3::EthernetHeader ( length/type=0x208, source=00:00:00:00:00:01, destination=00:00:00:00:00:02) ns3::LlcSnapHeader (type 0x2) Payload (size=512) ns3::EthernetTrailer (fcs=0)
+ 1.05734 /NodeList/3/DeviceList/0/$ns3::CsmaNetDevice/TxQueue/Enqueue ns3::EthernetHeader ( length/type=0x208, source=00:00:00:00:00:04, destination=00:00:00:00:00:01) ns3::LlcSnapHeader (type 0x3) Payload (size=512) ns3::EthernetTrailer (fcs=0)
- 1.05734 /NodeList/3/DeviceList/0/$ns3::CsmaNetDevice/TxQueue/Dequeue ns3::EthernetHeader ( length/type=0x208, source=00:00:00:00:00:04, destination=00:00:00:00:00:01) ns3::LlcSnapHeader (type 0x3) Payload (size=512) ns3::EthernetTrailer (fcs=0)
r 1.0602 /NodeList/1/DeviceList/0/$ns3::CsmaNetDevice/MacRx ns3::EthernetHeader ( length/type=0x208, source=00:00:00:00:00:01, destination=00:00:00:00:00:02) ns3::LlcSnapHeader (type 0x2) Payload (size=512) ns3::EthernetTrailer (fcs=0)
r 1.06329 /NodeList/0/DeviceList/0/$ns3::CsmaNetDevice/MacRx ns3::EthernetHeader ( length/type=0x208, source=00:00:00:00:00:04, destination=00:00:00:00:00:01) ns3::LlcSnapHeader (type 0x3) Payload (size=512) ns3::EthernetTrailer (fcs=0)
+ 1.06554 /NodeList/0/DeviceList/0/$ns3::CsmaNetDevice/TxQueue/Enqueue ns3::EthernetHeader ( length/type=0x208, source=00:00:00:00:00:01, destination=00:00:00:00:00:02) ns3::LlcSnapHeader (type 0x2) Payload (size=512) ns3::EthernetTrailer (fcs=0)
- 1.06554 /NodeList/0/DeviceList/0/$ns3::CsmaNetDevice/TxQueue/Dequeue ns3::EthernetHeader ( length/type=0x208, source=00:00:00:00:00:01, destination=00:00:00:00:00:02) ns3::LlcSnapHeader (type 0x2) Payload (size=512) ns3::EthernetTrailer (fcs=0)
+ 1.06554 /NodeList/3/DeviceList/0/$ns3::CsmaNetDevice/TxQueue/Enqueue ns3::EthernetHeader ( length/type=0x208, source=00:00:00:00:00:04, destination=00:00:00:00:00:01) ns3::LlcSnapHeader (type 0x3) Payload (size=512) ns3::EthernetTrailer (fcs=0)
- 1.06554 /NodeList/3/DeviceList/0/$ns3::CsmaNetDevice/TxQueue/Dequeue ns3::EthernetHeader ( length/type=0x208, source=00:00:00:00:00:04, destination=00:00:00:00:00:01) ns3::LlcSnapHeader (type 0x3) Payload (size=512) ns3::EthernetTrailer (fcs=0)
r 1.0684 /NodeList/1/DeviceList/0/$ns3::CsmaNetDevice/MacRx ns3::EthernetHeader ( length/type=0x208, source=00:00:00:00:00:01, destination=00:00:00:00:00:02) ns3::LlcSnapHeader (type 0x2) Payload (size=512) ns3::EthernetTrailer (fcs=0)
r 1.07137 /NodeList/0/DeviceList/0/$ns3::CsmaNetDevice/MacRx ns3::EthernetHeader ( length/type=0x208, source=00:00:00:00:00:04, destination=00:00:00:00:00:01) ns3::LlcSnapHeader (type 0x3) Payload (size=512) ns3::EthernetTrailer (fcs=0)
+ 1.07373 /NodeList/0/DeviceList/0/$ns3::CsmaNetDevice/TxQueue/Enqueue ns3::EthernetHeader ( length/type=0x208, source=00:00:00:00:00:01, destination=00:00:00:00:00:02) ns3::LlcSnapHeader (type 0x2) Payload (size=512) ns3::EthernetTrailer (fcs=0)
- 1.07373 /NodeList/0/DeviceList/0/$ns3::CsmaNetDevice/TxQueue/Dequeue ns3::EthernetHeader ( length/type=0x208, source=00:00:00:00:00:01, destination=00:00:00:00:00:02) ns3::LlcSnapHeader (type 0x2) Payload (size=512) ns3::EthernetTrailer (fcs=0)
+ 1.07373 /NodeList/3/DeviceList/0/$ns3::CsmaNetDevice/TxQueue/Enqueue ns3::EthernetHeader ( length/type=0x208, source=00:00:00:00:00:04, destination=00:00:00:00:00:01) ns3::LlcSnapHeader (type 0x3) Payload (size=512) ns3::EthernetTrailer (fcs=0)
- 1.07373 /NodeList/3/DeviceList/0/$ns3::CsmaNetDevice/TxQueue/Dequeue ns3::EthernetHeader ( length/type=0x208, source=00:00:00:00:00:04, destination=00:00:00:00:00:01) ns3::LlcSnapHeader (type 0x3) Payload (size=512) ns3::EthernetTrailer (fcs=0)
r 1.07659 /NodeList/1/DeviceList/0/$ns3::CsmaNetDevice/MacRx ns3::EthernetHeader ( length/type=0x208, source=00:00:00:00:00:01, destination=00:00:00:00:00:02) ns3::LlcSnapHeader (type 0x2) Payload (size=512) ns3::EthernetTrailer (fcs=0)
r 1.07956 /NodeList/0/DeviceList/0/$ns3::CsmaNetDevice/MacRx ns3::EthernetHeader ( length/type=0x208, source=00:00:00:00:00:04, destination=00:00:00:00:00:01) ns3::LlcSnapHeader (type 0x3) Payload (size=512) ns3::EthernetTrailer (fcs=0)
+ 1.08192 /NodeList/0/DeviceList/0/$ns3::CsmaNetDevice/TxQueue/Enqueue ns3::EthernetHeader ( length/type=0x208, source=00:00:00:00:00:01, destination=00:00:00:00:00:02) ns3::LlcSnapHeader (type 0x2) Payload (size=512) ns3::EthernetTrailer (fcs=0)
- 1.08192 /NodeList/0/DeviceList/0/$ns3::CsmaNetDevice/TxQueue/Dequeue ns3::EthernetHeader ( length/type=0x208, source=00:00:00:00:00:01, destination=00:00:00:00:00:02) ns3::LlcSnapHeader (type 0x2) Payload (size=512) ns3::EthernetTrailer (fcs=0)
+ 1.08192 /NodeList/3/DeviceList/0/$ns3::CsmaNetDevice/TxQueue/Enqueue ns3::EthernetHeader ( length/type=0x208, source=00:00:00:00:00:04, destination=00:00:00:00:00:01) ns3::LlcSnapHeader (type 0x3) Payload (size=512) ns3::EthernetTrailer (fcs=0)
- 1.08192 /NodeList/3/DeviceList/0/$ns3::CsmaNetDevice/TxQueue/Dequeue ns3::EthernetHeader ( length/type=0x208, source=00:00:00:00:00:04, destination=00:00:00:00:00:01) ns3::LlcSnapHeader (type 0x3) Payload (size=512) ns3::EthernetTrailer (fcs=0)
r 1.08478 /NodeList/1/DeviceList/0/$ns3::CsmaNetDevice/MacRx ns3::EthernetHeader ( length/type=0x208, source=00:00:00:00:00:01, destination=00:00:00:00:00:02) ns3::LlcSnapHeader (type 0x2) Payload (size=512) ns3::EthernetTrailer (fcs=0)
r 1.08798 /NodeList/0/DeviceList/0/$ns3::CsmaNetDevice/MacRx ns3::EthernetHeader ( length/type=0x208, source=00:00:00:00:00:04, destination=00:00:00:00:00:01) ns3::LlcSnapHeader (type 0x3) Payload (size=512) ns3::EthernetTrailer (fcs=0)
+ 1.09011 /NodeList/0/DeviceList/0/$ns3::CsmaNetDevice/TxQueue/Enqueue ns3::EthernetHeader ( length/type=0x208, source=00:00:00:00:00:01, destination=00:00:00:00:00:02) ns3::LlcSnapHeader (type 0x2) Payload (size=512) ns3::EthernetTrailer (fcs=0)
- 1.09011 /NodeList/0/DeviceList/0/$ns3::CsmaNetDevice/TxQueue/Dequeue ns3::EthernetHeader ( length/type=0x208, source=00:00:00:00:00:01, destination=00:00:00:00:00:02) ns3::LlcSnapHeader (type 0x2) Payload (size=512) ns3::EthernetTrailer (fcs=0)
+ 1.09011 /NodeList/3/DeviceList/0/$ns3::CsmaNetDevice/TxQueue/Enqueue ns3::EthernetHeader ( length/type=0x208, source=00:00:00:00:00:04, destination=00:00:00:00:00:01) ns3::LlcSnapHeader (type 0x3) Payload (size=512) ns3::EthernetTrailer (fcs=0)
- 1.09011 /NodeList/3/DeviceList/0/$ns3::CsmaNetDevice/TxQueue/Dequeue ns3::EthernetHeader ( length/type=0x208, source=00:00:00:00:00:04, destination=00:00:00:00:00:01) ns3::LlcSnapHeader (type 0x3) Payload (size=512) ns3::EthernetTrailer (fcs=0)
r 1.09297 /NodeList/1/DeviceList/0/$ns3::CsmaNetDevice/MacRx ns3::EthernetHeader ( length/type=0x208, source=00:00:00:00:00:01, destination=00:00:00:00:00:02) ns3::LlcSnapHeader (type 0x2) Payload (size=512) ns3::EthernetTrailer (fcs=0)
r 1.09622 /NodeList/0/DeviceList/0/$ns3::CsmaNetDevice/MacRx ns3::EthernetHeader ( length/type=0x208, source=00:00:00:00:00:04, destination=00:00:00:00:00:01) ns3::LlcSnapHeader (type 0x3) Payload (size=512) ns3::EthernetTrailer (fcs=0)
+ 1.0983 /NodeList/0/DeviceList/0/$ns3::CsmaNetDevice/TxQueue/Enqueue ns3::EthernetHeader ( length/type=0x208, source=00:00:00:00:00:01, destination=00:00:00:00:00:02) ns3::LlcSnapHeader (type 0x2) Payload (size=512) ns3::EthernetTrailer (fcs=0)
- 1.0983 /NodeList/0/DeviceList/0/$ns3::CsmaNetDevice/TxQueue/Dequeue ns3::EthernetHeader ( length/type=0x208, source=00:00:00:00:00:01, destination=00:00:00:00:00:02) ns3::LlcSnapHeader (type 0x2) Payload (size=512) ns3::EthernetTrailer (fcs=0)
+ 1.0983 /NodeList/3/DeviceList/0/$ns3::CsmaNetDevice/TxQueue/Enqueue ns3::EthernetHeader ( length/type=0x208, source=00:00:00:00:00:04, destination=00:00:00:00:00:01) ns3::LlcSnapHeader (type 0x3) Payload (size=512) ns3::EthernetTrailer (fcs=0)
- 1.0983 /NodeList/3/DeviceList/0/$ns3::CsmaNetDevice/TxQueue/Dequeue ns3::EthernetHeader ( length/type=0x208, source=00:00:00:00:00:04, destination=00:00:00:00:00:01) ns3::LlcSnapHeader (type 0x3) Payload (size=512) ns3::EthernetTrailer (fcs=0)
r 1.10116 /NodeList/1/DeviceList/0/$ns3::CsmaNetDevice/MacRx ns3::EthernetHeader ( length/type=0x208, source=00:00:00:00:00:01, destination=00:00:00:00:00:02) ns3::LlcSnapHeader (type 0x2) Payload (size=512) ns3::EthernetTrailer (fcs=0)
r 1.10464 /NodeList/0/DeviceList/0/$ns3::CsmaNetDevice/MacRx ns3::EthernetHeader ( length/type=0x208, source=00:00:00:00:00:04, destination=00:00:00:00:00:01) ns3::LlcSnapHeader (type 0x3) Payload (size=512) ns3::EthernetTrailer (fcs=0)
+ 1.1065 /NodeList/0/DeviceList/0/$ns3::CsmaNetDevice/TxQueue/Enqueue ns3::EthernetHeader ( length/type=0x208, source=00:00:00:00:00:01, destination=00:00:00:00:00:02) ns3::LlcSnapHeader (type 0x2) Payload (size=512) ns3::EthernetTrailer (fcs=0)
- 1.1065 /NodeList/0/DeviceList/0/$ns3::CsmaNetDevice/TxQueue/Dequeue ns3::EthernetHeader ( length/type=0x208, source=00:00:00:00:00:01, destination=00:00:00:00:00:02) ns3::LlcSnapHeader (type 0x2) Payload (size=512) ns3::EthernetTrailer (fcs=0)
+ 1.1065 /NodeList/3/DeviceList/0/$ns3::CsmaNetDevice/TxQueue/Enqueue ns3::EthernetHeader ( length/type=0x208, source=00:00:00:00:00:04, destination=00:00:00:00:00:01) ns3::LlcSnapHeader (type 0x3) Payload (size=512) ns3::EthernetTrailer (fcs=0)
- 1.1065 /NodeList/3/DeviceList/0/$ns3::CsmaNetDevice/TxQueue/Dequeue ns3::EthernetHeader ( length/type=0x208, source=00:00:00:00:00:04, destination=00:00:00:00:00:01) ns3::LlcSnapHeader (type 0x3) Payload (size=512) ns3::EthernetTrailer (fcs=0)
r 1.10936 /NodeList/1/DeviceList/0/$ns3::CsmaNetDevice/MacRx ns3::EthernetHeader ( length/type=0x208, source=00:00:00:00:00:01, destination=00:00:00:00:00:02) ns3::LlcSnapHeader (type 0x2) Payload (size=512) ns3::EthernetTrailer (fcs=0)
r 1.11291 /NodeList/0/DeviceList/0/$ns3::CsmaNetDevice/MacRx ns3::EthernetHeader ( length/type=0x208, source=00:00:00:00:00:04, destination=00:00:00:00:00:01) ns3::LlcSnapHeader (type 0x3) Payload (size=512) ns3::EthernetTrailer (fcs=0)
+ 1.11469 /NodeList/0/DeviceList/0/$ns3::CsmaNetDevice/TxQueue/Enqueue ns3::EthernetHeader ( length/type=0x208, source=00:00:00:00:00:01, destination=00:00:00:00:00:02) ns3::LlcSnapHeader (type 0x2) Payload (size=512) ns3::EthernetTrailer (fcs=0)
- 1.11469 /NodeList/0/DeviceList/0/$ns3::CsmaNetDevice/TxQueue/Dequeue ns3::EthernetHeader ( length/type=0x208, source=00:00:00:00:00:01, destination=00:00:00:00:00:02) ns3::LlcSnapHeader (type 0x2) Payload (size=512) ns3::EthernetTrailer (fcs=0)
+ 1.11469 /NodeList/3/DeviceList/0/$ns3::CsmaNetDevice/TxQueue/Enqueue ns3::EthernetHeader ( length/type=0x208, source=00:00:00:00:00:04, destination=00:00:00:00:00:01) ns3::LlcSnapHeader (type 0x3) Payload (size=512) ns3::EthernetTrailer (fcs=0)
- 1.11469 /NodeList/3/DeviceList/0/$ns3::CsmaNetDevice/TxQueue/Dequeue ns3::EthernetHeader ( length/type=0x208, source=00:00:00:00:00:04, destination=00:00:00:00:00:01) ns3::LlcSnapHeader (type 0x3) Payload (size=512) ns3::EthernetTrailer (fcs=0)
r 1.11755 /NodeList/1/DeviceList/0/$ns3::CsmaNetDevice/MacRx ns3::EthernetHeader ( length/type=0x208, source=00:00:00:00:00:01, destination=00:00:00:00:00:02) ns3::LlcSnapHeader (type 0x2) Payload (size=512) ns3::EthernetTrailer (fcs=0)
r 1.12063 /NodeList/0/DeviceList/0/$ns3::CsmaNetDevice/MacRx ns3::EthernetHeader ( length/type=0x208, source=00:00:00:00:00:04, destination=00:00:00:00:00:01) ns3::LlcSnapHeader (type 0x3) Payload (size=512) ns3::EthernetTrailer (fcs=0)
+ 1.12288 /NodeList/0/DeviceList/0/$ns3::CsmaNetDevice/TxQueue/Enqueue ns3::EthernetHeader ( length/type=0x208, source=00:00:00:00:00:01, destination=00:00:00:00:00:02) ns3::LlcSnapHeader (type 0x2) Payload (size=512) ns3::EthernetTrailer (fcs=0)
- 1.12288 /NodeList/0/DeviceList/0/$ns3::CsmaNetDevice/TxQueue/Dequeue ns3::EthernetHeader ( length/type=0x208, source=00:00:00:00:00:01, destination=00:00:00:00:00:02) ns3::LlcSnapHeader (type 0x2) Payload (size=512) ns3::EthernetTrailer (fcs=0)
+ 1.12288 /NodeList/3/DeviceList/0/$ns3::CsmaNetDevice/TxQueue/Enqueue ns3::EthernetHeader ( length/type=0x208, source=00:00:00:00:00:04, destination=00:00:00:00:00:01) ns3::LlcSnapHeader (type 0x3) Payload (size=512) ns3::EthernetTrailer (fcs=0)
- 1.12288 /NodeList/3/DeviceList/0/$ns3::CsmaNetDevice/TxQueue/Dequeue ns3::EthernetHeader ( length/type=0x208, source=00:00:00:00:00:04, destination=00:00:00:00:00:01) ns3::LlcSnapHeader (type 0x3) Payload (size=512) ns3::EthernetTrailer (fcs=0)
r 1.12574 /NodeList/1/DeviceList/0/$ns3::CsmaNetDevice/MacRx ns3::EthernetHeader ( length/type=0x208, source=00:00:00:00:00:01, destination=00:00:00:00:00:02) ns3::LlcSnapHeader (type 0x2) Payload (size=512) ns3::EthernetTrailer (fcs=0)
r 1.12929 /NodeList/0/DeviceList/0/$ns3::CsmaNetDevice/MacRx ns3::EthernetHeader ( length/type=0x208, source=00:00:00:00:00:04, destination=00:00:00:00:00:01) ns3::LlcSnapHeader (type 0x3) Payload (size=512) ns3::EthernetTrailer (fcs=0)
+ 1.13107 /NodeList/0/DeviceList/0/$ns3::CsmaNetDevice/TxQueue/Enqueue ns3::EthernetHeader ( length/type=0x208, source=00:00:00:00:00:01, destination=00:00:00:00:00:02) ns3::LlcSnapHeader (type 0x2) Payload (size=512) ns3::EthernetTrailer (fcs=0)
- 1.13107 /NodeList/0/DeviceList/0/$ns3::CsmaNetDevice/TxQueue/Dequeue ns3::EthernetHeader ( length/type=0x208, source=00:00:00:00:00:01, destination=00:00:00:00:00:02) ns3::LlcSnapHeader (type 0x2) Payload (size=512) ns3::EthernetTrailer (fcs=0)
+ 1.13107 /NodeList/3/DeviceList/0/$ns3::CsmaNetDevice/TxQueue/Enqueue ns3::EthernetHeader ( length/type=0x208, source=00:00:00:00:00:04, destination=00:00:00:00:00:01) ns3::LlcSnapHeader (type 0x3) Payload (size=512) ns3::EthernetTrailer (fcs=0)
- 1.13107 /NodeList/3/DeviceList/0/$ns3::CsmaNetDevice/TxQueue/Dequeue ns3::EthernetHeader ( length/type=0x208, source=00:00:00:00:00:04, destination=00:00:00:00:00:01) ns3::LlcSnapHeader (type 0x3) Payload (size=512) ns3::EthernetTrailer (fcs=0)
r 1.13393 /NodeList/1/DeviceList/0/$ns3::CsmaNetDevice/MacRx ns3::EthernetHeader ( length/type=0x208, source=00:00:00:00:00:01, destination=00:00:00:00:00:02) ns3::LlcSnapHeader (type 0x2) Payload (size=512) ns3::EthernetTrailer (fcs=0)
r 1.13729 /NodeList/0/DeviceList/0/$ns3::CsmaNetDevice/MacRx ns3::EthernetHeader ( length/type=0x208, source=00:00:00:00:00:04, destination=00:00:00:00:00:01) ns3::LlcSnapHeader (type 0x3) Payload (size=512) ns3::EthernetTrailer (fcs=0)
+ 1.13926 /NodeList/0/DeviceList/0/$ns3::CsmaNetDevice/TxQueue/Enqueue ns3::EthernetHeader ( length/type=0x208, source=00:00:00:00:00:01, destination=00:00:00:00:00:02) ns3::LlcSnapHeader (type 0x2) Payload (size=512) ns3::EthernetTrailer (fcs=0)
- 1.13926 /NodeList/0/DeviceList/0/$ns3::CsmaNetDevice/TxQueue/Dequeue ns3::EthernetHeader ( length/type=0x208, source=00:00:00:00:00:01, destination=00:00:00:00:00:02) ns3::LlcSnapHeader (type 0x2) Payload (size=512) ns3::EthernetTrailer (fcs=0)
+ 1.13926 /NodeList/3/DeviceList/0/$ns3::CsmaNetDevice/TxQueue/Enqueue ns3::EthernetHeader ( length/type=0x208, source=00:00:00:00:00:04, destination=00:00:00:00:00:01) ns3::LlcSnapHeader (type 0x3) Payload (size=512) ns3::EthernetTrailer (fcs=0)
- 1.13926 /NodeList/3/DeviceList/0/$ns3::CsmaNetDevice/TxQueue/Dequeue ns3::EthernetHeader ( length/type=0x208, source=00:00:00:00:00:04, destination=00:00:00:00:00:01) ns3::LlcSnapHeader (type 0x3) Payload (size=512) ns3::EthernetTrailer (fcs=0)
r 1.14212 /NodeList/1/DeviceList/0/$ns3::CsmaNetDevice/MacRx ns3::EthernetHeader ( length/type=0x208, source=00:00:00:00:00:01, destination=00:00:00:00:00:02) ns3::LlcSnapHeader (type 0x2) Payload (size=512) ns3::EthernetTrailer (fcs=0)
r 1.14514 /NodeList/0/DeviceList/0/$ns3::CsmaNetDevice/MacRx ns3::EthernetHeader ( length/type=0x208, source=00:00:00:00:00:04, destination=00:00:00:00:00:01) ns3::LlcSnapHeader (type 0x3) Payload (size=512) ns3::EthernetTrailer (fcs=0)
+ 1.14746 /NodeList/0/DeviceList/0/$ns3::CsmaNetDevice/TxQueue/Enqueue ns3::EthernetHeader ( length/type=0x208, source=00:00:00:00:00:01, destination=00:00:00:00:00:02) ns3::LlcSnapHeader (type 0x2) Payload (size=512) ns3::EthernetTrailer (fcs=0)
- 1.14746 /NodeList/0/DeviceList/0/$ns3::CsmaNetDevice/TxQueue/Dequeue ns3::EthernetHeader ( length/type=0x208, source=00:00:00:00:00:01, destination=00:00:00:00:00:02) ns3::LlcSnapHeader (type 0x2) Payload (size=512) ns3::EthernetTrailer (fcs=0)
+ 1.14746 /NodeList/3/DeviceList/0/$ns3::CsmaNetDevice/TxQueue/Enqueue ns3::EthernetHeader ( length/type=0x208, source=00:00:00:00:00:04, destination=00:00:00:00:00:01) ns3::LlcSnapHeader (type 0x3) Payload (size=512) ns3::EthernetTrailer (fcs=0)
- 1.14746 /NodeList/3/DeviceList/0/$ns3::CsmaNetDevice/TxQueue/Dequeue ns3::EthernetHeader ( length/type=0x208, source=00:00:00:00:00:04, destination=00:00:00:00:00:01) ns3::LlcSnapHeader (type 0x3) Payload (size=512) ns3::EthernetTrailer (fcs=0)
r 1.15032 /NodeList/1/DeviceList/0/$ns3::CsmaNetDevice/MacRx ns3::EthernetHeader ( length/type=0x208, source=00:00:00:00:00:01, destination=00:00:00:00:00:02) ns3::LlcSnapHeader (type 0x2) Payload (size=512) ns3::EthernetTrailer (fcs=0)
r 1.15344 /NodeList/0/DeviceList/0/$ns3::CsmaNetDevice/MacRx ns3::EthernetHeader ( length/type=0x208, source=00:00:00:00:00:04, destination=00:00:00:00:00:01) ns3::LlcSnapHeader (type 0x3) Payload (size=512) ns3::EthernetTrailer (fcs=0)
+ 1.15565 /NodeList/0/DeviceList/0/$ns3::CsmaNetDevice/TxQueue/Enqueue ns3::EthernetHeader ( length/type=0x208, source=00:00:00:00:00:01, destination=00:00:00:00:00:02) ns3::LlcSnapHeader (type 0x2) Payload (size=512) ns3::EthernetTrailer (fcs=0)
- 1.15565 /NodeList/0/DeviceList/0/$ns3::CsmaNetDevice/TxQueue/Dequeue ns3::EthernetHeader ( length/type=0x208, source=00:00:00:00:00:01, destination=00:00:00:00:00:02) ns3::LlcSnapHeader (type 0x2) Payload (size=512) ns3::EthernetTrailer (fcs=0)
+ 1.15565 /NodeList/3/DeviceList/0/$ns3::CsmaNetDevice/TxQueue/Enqueue ns3::EthernetHeader ( length/type=0x208, source=00:00:00:00:00:04, destination=00:00:00:00:00:01) ns3::LlcSnapHeader (type 0x3) Payload (size=512) ns3::EthernetTrailer (fcs=0)
- 1.15565 /NodeList/3/DeviceList/0/$ns3::CsmaNetDevice/TxQueue/Dequeue ns3::EthernetHeader ( length/type=0x208, source=00:00:00:00:00:04, destination=00:00:00:00:00:01) ns3::LlcSnapHeader (type 0x3) Payload (size=512) ns3::EthernetTrailer (fcs=0)
r 1.15851 /NodeList/1/DeviceList/0/$ns3::CsmaNetDevice/MacRx ns3::EthernetHeader ( length/type=0x208, source=00:00:00:00:00:01, destination=00:00:00:00:00:02) ns3::LlcSnapHeader (type 0x2) Payload (size=512) ns3::EthernetTrailer (fcs=0)
r 1.16203 /NodeList/0/DeviceList/0/$ns3::CsmaNetDevice/MacRx ns3::EthernetHeader ( length/type=0x208, source=00:00:00:00:00:04, destination=00:00:00:00:00:01) ns3::LlcSnapHeader (type 0x3) Payload (size=512) ns3::EthernetTrailer (fcs=0)
+ 1.16384 /NodeList/0/DeviceList/0/$ns3::CsmaNetDevice/TxQueue/Enqueue ns3::EthernetHeader ( length/type=0x208, source=00:00:00:00:00:01, destination=00:00:00:00:00:02) ns3::LlcSnapHeader (type 0x2) Payload (size=512) ns3::EthernetTrailer (fcs=0)
- 1.16384 /NodeList/0/DeviceList/0/$ns3::CsmaNetDevice/TxQueue/Dequeue ns3::EthernetHeader ( length/type=0x208, source=00:00:00:00:00:01, destination=00:00:00:00:00:02) ns3::LlcSnapHeader (type 0x2) Payload (size=512) ns3::EthernetTrailer (fcs=0)
+ 1.16384 /NodeList/3/DeviceList/0/$ns3::CsmaNetDevice/TxQueue/Enqueue ns3::EthernetHeader ( length/type=0x208, source=00:00:00:00:00:04, destination=00:00:00:00:00:01) ns3::LlcSnapHeader (type 0x3) Payload (size=512) ns3::EthernetTrailer (fcs=0)
- 1.16384 /NodeList/3/DeviceList/0/$ns3::CsmaNetDevice/TxQueue/Dequeue ns3::EthernetHeader ( length/type=0x208, source=00:00:00:00:00:04, destination=00:00:00:00:00:01) ns3::LlcSnapHeader (type 0x3) Payload (size=512) ns3::EthernetTrailer (fcs=0)
r 1.1667 /NodeList/1/DeviceList/0/$ns3::CsmaNetDevice/MacRx ns3::EthernetHeader ( length/type=0x208, source=00:00:00:00:00:01, destination=00:00:00:00:00:02) ns3::LlcSnapHeader (type 0x2) Payload (size=512) ns3::EthernetTrailer (fcs=0)
r 1.16996 /NodeList/0/DeviceList/0/$ns3::CsmaNetDevice/MacRx ns3::EthernetHeader ( length/type=0x208, source=00:00:00:00:00:04, destination=00:00:00:00:00:01) ns3::LlcSnapHeader (type 0x3) Payload (size=512) ns3::EthernetTrailer (fcs=0)
+ 1.17203 /NodeList/0/DeviceList/0/$ns3::CsmaNetDevice/TxQueue/Enqueue ns3::EthernetHeader ( length/type=0x208, source=00:00:00:00:00:01, destination=00:00:00:00:00:02) ns3::LlcSnapHeader (type 0x2) Payload (size=512) ns3::EthernetTrailer (fcs=0)
- 1.17203 /NodeList/0/DeviceList/0/$ns3::CsmaNetDevice/TxQueue/Dequeue ns3::EthernetHeader ( length/type=0x208, source=00:00:00:00:00:01, destination=00:00:00:00:00:02) ns3::LlcSnapHeader (type 0x2) Payload (size=512) ns3::EthernetTrailer (fcs=0)
+ 1.17203 /NodeList/3/DeviceList/0/$ns3::CsmaNetDevice/TxQueue/Enqueue ns3::EthernetHeader ( length/type=0x208, source=00:00:00:00:00:04, destination=00:00:00:00:00:01) ns3::LlcSnapHeader (type 0x3) Payload (size=512) ns3::EthernetTrailer (fcs=0)